TITLE="fun3d_case_title"
VARIABLES="Iteration" "R_1" "R_2" "R_3" "R_4" "R_5" "C_L" "C_D" "C_M_x" "C_M_y" "C_M_z" "Wall Time" "C_x" "C_y" "C_z" "C_Lp" "C_Dp" "C_Lv" "C_Dv" "C_M_xp" "C_M_yp" "C_M_zp" "C_M_xv" "C_M_yv" "C_M_zv" "C_xp" "C_yp" "C_zp" "C_xv" "C_yv" "C_zv"
ZONE  I=200 F=POINT
1  0.2155899073E-02  0.2371488980E-02  0.1633961087E-13  0.1585247364E-13  0.6694066620E-02 -0.3238622707E-03  0.1603080293E+00  0.2154788060E-04  0.5460513984E-03 -0.7593438589E-03  0.7339429687E+00  0.1603080293E+00 -0.1346985432E-03 -0.3238622707E-03 -0.3238622707E-03  0.1603080293E+00  0.0000000000E+00  0.0000000000E+00  0.2154788060E-04  0.5460513984E-03 -0.7593438589E-03  0.0000000000E+00  0.0000000000E+00  0.0000000000E+00  0.1603080293E+00 -0.1346985432E-03 -0.3238622707E-03  0.0000000000E+00  0.0000000000E+00  0.0000000000E+00
2  0.2123893023E-02  0.2330707136E-02  0.9152216380E-05  0.9181727861E-05  0.6570673790E-02 -0.2446959720E-02  0.1561167508E+01  0.2216613214E-03  0.5354868349E-02 -0.6602948325E-02  0.7381429687E+00  0.1561167508E+01 -0.1992749691E-02 -0.2446959720E-02 -0.2446959720E-02  0.1561167508E+01  0.0000000000E+00  0.0000000000E+00  0.2216613214E-03  0.5354868349E-02 -0.6602948325E-02  0.0000000000E+00  0.0000000000E+00  0.0000000000E+00  0.1561167508E+01 -0.1992749691E-02 -0.2446959720E-02  0.0000000000E+00  0.0000000000E+00  0.0000000000E+00
3  0.1873846144E-02  0.2040283414E-02  0.9823413895E-04  0.9784001613E-04  0.5690336370E-02 -0.4993385047E-02  0.3143422423E+01  0.4965855971E-03  0.1099955019E-01 -0.1068990210E-01  0.7417429688E+00  0.3143422423E+01 -0.2231465358E-02 -0.4993385047E-02 -0.4993385047E-02  0.3143422423E+01  0.0000000000E+00  0.0000000000E+00  0.4965855971E-03  0.1099955019E-01 -0.1068990210E-01  0.0000000000E+00  0.0000000000E+00  0.0000000000E+00  0.3143422423E+01 -0.2231465358E-02 -0.4993385047E-02  0.0000000000E+00  0.0000000000E+00  0.0000000000E+00
4  0.1638800827E-02  0.1769293609E-02  0.2186034720E-03  0.2177194554E-03  0.4950864312E-02 -0.7311798841E-02  0.4846952046E+01  0.7443587544E-03  0.1527827058E-01 -0.1231806277E-01  0.7454429688E+00  0.4846952046E+01 -0.1671779514E-02 -0.7311798841E-02 -0.7311798841E-02  0.4846952046E+01  0.0000000000E+00  0.0000000000E+00  0.7443587544E-03  0.1527827058E-01 -0.1231806277E-01  0.0000000000E+00  0.0000000000E+00  0.0000000000E+00  0.4846952046E+01 -0.1671779514E-02 -0.7311798841E-02  0.0000000000E+00  0.0000000000E+00  0.0000000000E+00
5  0.1431323433E-02  0.1616844795E-02  0.3521149463E-03  0.3501162207E-03  0.4371197557E-02 -0.6270568889E-02  0.6540665263E+01  0.9042381776E-03  0.1485681063E-01 -0.1662529966E-01  0.7490429688E+00  0.6540665263E+01 -0.5597818747E-02 -0.6270568889E-02 -0.6270568889E-02  0.6540665263E+01  0.0000000000E+00  0.0000000000E+00  0.9042381776E-03  0.1485681063E-01 -0.1662529966E-01  0.0000000000E+00  0.0000000000E+00  0.0000000000E+00  0.6540665263E+01 -0.5597818747E-02 -0.6270568889E-02  0.0000000000E+00  0.0000000000E+00  0.0000000000E+00
6  0.1276512631E-02  0.1648735115E-02  0.4869239814E-03  0.4816655326E-03  0.3980768979E-02 -0.5770282576E-02  0.7796857977E+01  0.9735284251E-03  0.1403692883E-01 -0.1734796511E-01  0.7527429688E+00  0.7796857977E+01 -0.6901538405E-02 -0.5770282576E-02 -0.5770282576E-02  0.7796857977E+01  0.0000000000E+00  0.0000000000E+00  0.9735284251E-03  0.1403692883E-01 -0.1734796511E-01  0.0000000000E+00  0.0000000000E+00  0.0000000000E+00  0.7796857977E+01 -0.6901538405E-02 -0.5770282576E-02  0.0000000000E+00  0.0000000000E+00  0.0000000000E+00
7  0.1206152397E-02  0.1797831866E-02  0.6224070147E-03  0.6127019150E-03  0.3857760787E-02 -0.4553167307E-02  0.8040356889E+01  0.9650613016E-03  0.1265612153E-01 -0.1397764194E-01  0.7565414063E+00  0.8040356889E+01 -0.4282326724E-02 -0.4553167307E-02 -0.4553167307E-02  0.8040356889E+01  0.0000000000E+00  0.0000000000E+00  0.9650613016E-03  0.1265612153E-01 -0.1397764194E-01  0.0000000000E+00  0.0000000000E+00  0.0000000000E+00  0.8040356889E+01 -0.4282326724E-02 -0.4553167307E-02  0.0000000000E+00  0.0000000000E+00  0.0000000000E+00
8  0.1160725456E-02  0.1952412248E-02  0.7454129787E-03  0.7381926231E-03  0.3821958164E-02 -0.4281843959E-02  0.7633717934E+01  0.8957784703E-03  0.1286651446E-01 -0.1459986415E-01  0.7601429688E+00  0.7633717934E+01 -0.5307750449E-02 -0.4281843959E-02 -0.4281843959E-02  0.7633717934E+01  0.0000000000E+00  0.0000000000E+00  0.8957784703E-03  0.1286651446E-01 -0.1459986415E-01  0.0000000000E+00  0.0000000000E+00  0.0000000000E+00  0.7633717934E+01 -0.5307750449E-02 -0.4281843959E-02  0.0000000000E+00  0.0000000000E+00  0.0000000000E+00
9  0.1139880045E-02  0.2116161422E-02  0.9052996666E-03  0.9148995004E-03  0.3866857558E-02 -0.6136467964E-02  0.7113367216E+01  0.7734580821E-03  0.1601104955E-01 -0.1656238442E-01  0.7638429688E+00  0.7113367216E+01 -0.6931163695E-02 -0.6136467964E-02 -0.6136467964E-02  0.7113367216E+01  0.0000000000E+00  0.0000000000E+00  0.7734580821E-03  0.1601104955E-01 -0.1656238442E-01  0.0000000000E+00  0.0000000000E+00  0.0000000000E+00  0.7113367216E+01 -0.6931163695E-02 -0.6136467964E-02  0.0000000000E+00  0.0000000000E+00  0.0000000000E+00
10  0.1144419034E-02  0.2300152860E-02  0.1082751950E-02  0.1115169699E-02  0.3963894026E-02 -0.9069944694E-02  0.6544765391E+01  0.6066156894E-03  0.2172739478E-01 -0.1632541377E-01  0.7674429688E+00  0.6544765391E+01 -0.7218013772E-02 -0.9069944694E-02 -0.9069944694E-02  0.6544765391E+01  0.0000000000E+00  0.0000000000E+00  0.6066156894E-03  0.2172739478E-01 -0.1632541377E-01  0.0000000000E+00  0.0000000000E+00  0.0000000000E+00  0.6544765391E+01 -0.7218013772E-02 -0.9069944694E-02  0.0000000000E+00  0.0000000000E+00  0.0000000000E+00
11  0.1129165525E-02  0.2348209429E-02  0.1173072497E-02  0.1217795004E-02  0.3809714066E-02 -0.1183217636E-01  0.6027580805E+01  0.4102164135E-03  0.2971164038E-01 -0.1458872179E-01  0.7711429688E+00  0.6027580805E+01 -0.6011062174E-02 -0.1183217636E-01 -0.1183217636E-01  0.6027580805E+01  0.0000000000E+00  0.0000000000E+00  0.4102164135E-03  0.2971164038E-01 -0.1458872179E-01  0.0000000000E+00  0.0000000000E+00  0.0000000000E+00  0.6027580805E+01 -0.6011062174E-02 -0.1183217636E-01  0.0000000000E+00  0.0000000000E+00  0.0000000000E+00
12  0.1060773945E-02  0.2110870148E-02  0.1102117465E-02  0.1131363306E-02  0.3250222012E-02 -0.1239813075E-01  0.5545235857E+01  0.1902868794E-03  0.3539927927E-01 -0.9781566743E-02  0.7755429688E+00  0.5545235857E+01 -0.3500294246E-02 -0.1239813075E-01 -0.1239813075E-01  0.5545235857E+01  0.0000000000E+00  0.0000000000E+00  0.1902868794E-03  0.3539927927E-01 -0.9781566743E-02  0.0000000000E+00  0.0000000000E+00  0.0000000000E+00  0.5545235857E+01 -0.3500294246E-02 -0.1239813075E-01  0.0000000000E+00  0.0000000000E+00  0.0000000000E+00
13  0.1031934864E-02  0.1609551079E-02  0.9626572228E-03  0.9562482844E-03  0.2697702873E-02 -0.1072463531E-01  0.5127566484E+01 -0.1677845908E-04  0.3598679492E-01 -0.3172945431E-02  0.7800679688E+00  0.5127566484E+01  0.9102214239E-04 -0.1072463531E-01 -0.1072463531E-01  0.5127566484E+01  0.0000000000E+00  0.0000000000E+00 -0.1677845908E-04  0.3598679492E-01 -0.3172945431E-02  0.0000000000E+00  0.0000000000E+00  0.0000000000E+00  0.5127566484E+01  0.9102214239E-04 -0.1072463531E-01  0.0000000000E+00  0.0000000000E+00  0.0000000000E+00
14  0.1141583132E-02  0.1226890677E-02  0.1063194068E-02  0.1053166028E-02  0.2827804122E-02 -0.6946964190E-02  0.4785700136E+01 -0.1900732467E-03  0.3089287109E-01 -0.9702303431E-04  0.7844429688E+00  0.4785700136E+01  0.3539738621E-02 -0.6946964190E-02 -0.6946964190E-02  0.4785700136E+01  0.0000000000E+00  0.0000000000E+00 -0.1900732467E-03  0.3089287109E-01 -0.9702303431E-04  0.0000000000E+00  0.0000000000E+00  0.0000000000E+00  0.4785700136E+01  0.3539738621E-02 -0.6946964190E-02  0.0000000000E+00  0.0000000000E+00  0.0000000000E+00
15  0.1277646211E-02  0.1039570275E-02  0.1273206135E-02  0.1278043554E-02  0.3051398219E-02 -0.2287111266E-02  0.4539026964E+01 -0.3193372534E-03  0.2167269023E-01 -0.1583969813E-02  0.7888429688E+00  0.4539026964E+01  0.5679172691E-02 -0.2287111266E-02 -0.2287111266E-02  0.4539026964E+01  0.0000000000E+00  0.0000000000E+00 -0.3193372534E-03  0.2167269023E-01 -0.1583969813E-02  0.0000000000E+00  0.0000000000E+00  0.0000000000E+00  0.4539026964E+01  0.5679172691E-02 -0.2287111266E-02  0.0000000000E+00  0.0000000000E+00  0.0000000000E+00
16  0.1336070648E-02  0.8764418717E-03  0.1327495904E-02  0.1333356438E-02  0.2945576933E-02  0.1756793997E-02  0.4386156669E+01 -0.4058704696E-03  0.1190995679E-01 -0.5783033989E-02  0.7932429688E+00  0.4386156669E+01  0.5984462905E-02  0.1756793997E-02  0.1756793997E-02  0.4386156669E+01  0.0000000000E+00  0.0000000000E+00 -0.4058704696E-03  0.1190995679E-01 -0.5783033989E-02  0.0000000000E+00  0.0000000000E+00  0.0000000000E+00  0.4386156669E+01  0.5984462905E-02  0.1756793997E-02  0.0000000000E+00  0.0000000000E+00  0.0000000000E+00
17  0.1294821698E-02  0.7165374371E-03  0.1172803943E-02  0.1167150967E-02  0.2639954762E-02  0.4179231485E-02  0.4289978127E+01 -0.4611134223E-03  0.6679046231E-02 -0.1368742621E-01  0.7976429688E+00  0.4289978127E+01  0.4824609619E-02  0.4179231485E-02  0.4179231485E-02  0.4289978127E+01  0.0000000000E+00  0.0000000000E+00 -0.4611134223E-03  0.6679046231E-02 -0.1368742621E-01  0.0000000000E+00  0.0000000000E+00  0.0000000000E+00  0.4289978127E+01  0.4824609619E-02  0.4179231485E-02  0.0000000000E+00  0.0000000000E+00  0.0000000000E+00
18  0.1179815989E-02  0.7568474277E-03  0.9275859951E-03  0.9192145275E-03  0.2415203484E-02  0.4795843117E-02  0.4232202829E+01 -0.4981428852E-03  0.8520093694E-02 -0.2287239682E-01  0.8019429688E+00  0.4232202829E+01  0.2916544724E-02  0.4795843117E-02  0.4795843117E-02  0.4232202829E+01  0.0000000000E+00  0.0000000000E+00 -0.4981428852E-03  0.8520093694E-02 -0.2287239682E-01  0.0000000000E+00  0.0000000000E+00  0.0000000000E+00  0.4232202829E+01  0.2916544724E-02  0.4795843117E-02  0.0000000000E+00  0.0000000000E+00  0.0000000000E+00
19  0.1020808000E-02  0.9553945811E-03  0.7453941431E-03  0.7582756135E-03  0.2278136678E-02  0.3985180636E-02  0.4195413744E+01 -0.5270702638E-03  0.1741028469E-01 -0.3244499344E-01  0.8063429688E+00  0.4195413744E+01  0.7587649425E-03  0.3985180636E-02  0.3985180636E-02  0.4195413744E+01  0.0000000000E+00  0.0000000000E+00 -0.5270702638E-03  0.1741028469E-01 -0.3244499344E-01  0.0000000000E+00  0.0000000000E+00  0.0000000000E+00  0.4195413744E+01  0.7587649425E-03  0.3985180636E-02  0.0000000000E+00  0.0000000000E+00  0.0000000000E+00
20  0.8399299770E-03  0.1103382469E-02  0.6547562810E-03  0.6922613728E-03  0.2068590976E-02  0.2337257315E-02  0.4169990795E+01 -0.5535913745E-03  0.3086121255E-01 -0.4191831720E-01  0.8108710938E+00  0.4169990795E+01 -0.1394006579E-02  0.2337257315E-02  0.2337257315E-02  0.4169990795E+01  0.0000000000E+00  0.0000000000E+00 -0.5535913745E-03  0.3086121255E-01 -0.4191831720E-01  0.0000000000E+00  0.0000000000E+00  0.0000000000E+00  0.4169990795E+01 -0.1394006579E-02  0.2337257315E-02  0.0000000000E+00  0.0000000000E+00  0.0000000000E+00
21  0.6574296196E-03  0.1119438519E-02  0.5783272782E-03  0.6223875009E-03  0.1734273680E-02  0.3284594323E-03  0.4149873651E+01 -0.5794540820E-03  0.4616081604E-01 -0.5112646380E-01  0.8153429688E+00  0.4149873651E+01 -0.3459044432E-02  0.3284594323E-03  0.3284594323E-03  0.4149873651E+01  0.0000000000E+00  0.0000000000E+00 -0.5794540820E-03  0.4616081604E-01 -0.5112646380E-01  0.0000000000E+00  0.0000000000E+00  0.0000000000E+00  0.4149873651E+01 -0.3459044432E-02  0.3284594323E-03  0.0000000000E+00  0.0000000000E+00  0.0000000000E+00
22  0.4917486342E-03  0.1018655478E-02  0.4744380337E-03  0.5103514269E-03  0.1337221209E-02 -0.1803557825E-02  0.4131821717E+01 -0.6039236384E-03  0.6153735359E-01 -0.5954935204E-01  0.8196429687E+00  0.4131821717E+01 -0.5392888000E-02 -0.1803557825E-02 -0.1803557825E-02  0.4131821717E+01  0.0000000000E+00  0.0000000000E+00 -0.6039236384E-03  0.6153735359E-01 -0.5954935204E-01  0.0000000000E+00  0.0000000000E+00  0.0000000000E+00  0.4131821717E+01 -0.5392888000E-02 -0.1803557825E-02  0.0000000000E+00  0.0000000000E+00  0.0000000000E+00
23  0.3554628309E-03  0.8528945512E-03  0.3569474988E-03  0.3794298524E-03  0.9625152655E-03 -0.3951424396E-02  0.4114505098E+01 -0.6258084436E-03  0.7575520746E-01 -0.6668272190E-01  0.8240429687E+00  0.4114505098E+01 -0.7115015813E-02 -0.3951424396E-02 -0.3951424396E-02  0.4114505098E+01  0.0000000000E+00  0.0000000000E+00 -0.6258084436E-03  0.7575520746E-01 -0.6668272190E-01  0.0000000000E+00  0.0000000000E+00  0.0000000000E+00  0.4114505098E+01 -0.7115015813E-02 -0.3951424396E-02  0.0000000000E+00  0.0000000000E+00  0.0000000000E+00
24  0.2527463439E-03  0.6739750588E-03  0.2521148286E-03  0.2625372542E-03  0.6627662916E-03 -0.6014667832E-02  0.4097885853E+01 -0.6445103497E-03  0.8796846669E-01 -0.7195799180E-01  0.8284429687E+00  0.4097885853E+01 -0.8512546111E-02 -0.6014667832E-02 -0.6014667832E-02  0.4097885853E+01  0.0000000000E+00  0.0000000000E+00 -0.6445103497E-03  0.8796846669E-01 -0.7195799180E-01  0.0000000000E+00  0.0000000000E+00  0.0000000000E+00  0.4097885853E+01 -0.8512546111E-02 -0.6014667832E-02  0.0000000000E+00  0.0000000000E+00  0.0000000000E+00
25  0.1803774481E-03  0.5156515970E-03  0.1736930375E-03  0.1764104210E-03  0.4492016453E-03 -0.7787384223E-02  0.4082932924E+01 -0.6595869422E-03  0.9723726688E-01 -0.7493561809E-01  0.8319429687E+00  0.4082932924E+01 -0.9458019589E-02 -0.7787384223E-02 -0.7787384223E-02  0.4082932924E+01  0.0000000000E+00  0.0000000000E+00 -0.6595869422E-03  0.9723726688E-01 -0.7493561809E-01  0.0000000000E+00  0.0000000000E+00  0.0000000000E+00  0.4082932924E+01 -0.9458019589E-02 -0.7787384223E-02  0.0000000000E+00  0.0000000000E+00  0.0000000000E+00
26  0.1324671914E-03  0.3903373567E-03  0.1206749704E-03  0.1199713003E-03  0.3081307155E-03 -0.9250518990E-02  0.4068850056E+01 -0.6726880819E-03  0.1038552696E+00 -0.7599434118E-01  0.8363429687E+00  0.4068850056E+01 -0.1002493890E-01 -0.9250518990E-02 -0.9250518990E-02  0.4068850056E+01  0.0000000000E+00  0.0000000000E+00 -0.6726880819E-03  0.1038552696E+00 -0.7599434118E-01  0.0000000000E+00  0.0000000000E+00  0.0000000000E+00  0.4068850056E+01 -0.1002493890E-01 -0.9250518990E-02  0.0000000000E+00  0.0000000000E+00  0.0000000000E+00
27  0.9802202055E-04  0.2977890862E-03  0.8640250712E-04  0.8488254440E-04  0.2166134882E-03 -0.1023675699E-01  0.4056789154E+01 -0.6832741501E-03  0.1074398423E+00 -0.7538809429E-01  0.8399429687E+00  0.4056789154E+01 -0.1021115949E-01 -0.1023675699E-01 -0.1023675699E-01  0.4056789154E+01  0.0000000000E+00  0.0000000000E+00 -0.6832741501E-03  0.1074398423E+00 -0.7538809429E-01  0.0000000000E+00  0.0000000000E+00  0.0000000000E+00  0.4056789154E+01 -0.1021115949E-01 -0.1023675699E-01  0.0000000000E+00  0.0000000000E+00  0.0000000000E+00
28  0.7457527397E-04  0.2278559787E-03  0.6297851197E-04  0.6163242254E-04  0.1542833518E-03 -0.1081700910E-01  0.4045978301E+01 -0.6924877880E-03  0.1086384765E+00 -0.7375654067E-01  0.8444429687E+00  0.4045978301E+01 -0.1015498815E-01 -0.1081700910E-01 -0.1081700910E-01  0.4045978301E+01  0.0000000000E+00  0.0000000000E+00 -0.6924877880E-03  0.1086384765E+00 -0.7375654067E-01  0.0000000000E+00  0.0000000000E+00  0.0000000000E+00  0.4045978301E+01 -0.1015498815E-01 -0.1081700910E-01  0.0000000000E+00  0.0000000000E+00  0.0000000000E+00
29  0.5601139401E-04  0.1724751552E-03  0.4743543076E-04  0.4663760269E-04  0.1112021413E-03 -0.1104577271E-01  0.4037038282E+01 -0.6998866903E-03  0.1081176727E+00 -0.7170931559E-01  0.8478429687E+00  0.4037038282E+01 -0.9956854901E-02 -0.1104577271E-01 -0.1104577271E-01  0.4037038282E+01  0.0000000000E+00  0.0000000000E+00 -0.6998866903E-03  0.1081176727E+00 -0.7170931559E-01  0.0000000000E+00  0.0000000000E+00  0.0000000000E+00  0.4037038282E+01 -0.9956854901E-02 -0.1104577271E-01  0.0000000000E+00  0.0000000000E+00  0.0000000000E+00
30  0.4285023377E-04  0.1290176485E-03  0.3648570911E-04  0.3628948106E-04  0.7987737747E-04 -0.1104338302E-01  0.4029452172E+01 -0.7061358218E-03  0.1065541188E+00 -0.6963096646E-01  0.8522429687E+00  0.4029452172E+01 -0.9708822859E-02 -0.1104338302E-01 -0.1104338302E-01  0.4029452172E+01  0.0000000000E+00  0.0000000000E+00 -0.7061358218E-03  0.1065541188E+00 -0.6963096646E-01  0.0000000000E+00  0.0000000000E+00  0.0000000000E+00  0.4029452172E+01 -0.9708822859E-02 -0.1104338302E-01  0.0000000000E+00  0.0000000000E+00  0.0000000000E+00
31  0.3185748975E-04  0.9290650929E-04  0.2902905004E-04  0.2949943227E-04  0.5845252092E-04 -0.1091954414E-01  0.4023507517E+01 -0.7109650779E-03  0.1046776952E+00 -0.6786305105E-01  0.8557429687E+00  0.4023507517E+01 -0.9475449941E-02 -0.1091954414E-01 -0.1091954414E-01  0.4023507517E+01  0.0000000000E+00  0.0000000000E+00 -0.7109650779E-03  0.1046776952E+00 -0.6786305105E-01  0.0000000000E+00  0.0000000000E+00  0.0000000000E+00  0.4023507517E+01 -0.9475449941E-02 -0.1091954414E-01  0.0000000000E+00  0.0000000000E+00  0.0000000000E+00
32  0.2408089826E-04  0.6568224803E-04  0.2340522214E-04  0.2436796778E-04  0.4343696431E-04 -0.1074481499E-01  0.4018841707E+01 -0.7148473960E-03  0.1027949093E+00 -0.6644475482E-01  0.8601429687E+00  0.4018841707E+01 -0.9279104255E-02 -0.1074481499E-01 -0.1074481499E-01  0.4018841707E+01  0.0000000000E+00  0.0000000000E+00 -0.7148473960E-03  0.1027949093E+00 -0.6644475482E-01  0.0000000000E+00  0.0000000000E+00  0.0000000000E+00  0.4018841707E+01 -0.9279104255E-02 -0.1074481499E-01  0.0000000000E+00  0.0000000000E+00  0.0000000000E+00
33  0.1760038920E-04  0.4424819347E-04  0.1914033963E-04  0.2040846434E-04  0.3408164226E-04 -0.1058149826E-01  0.4015466921E+01 -0.7177150756E-03  0.1012567332E+00 -0.6542942258E-01  0.8636429687E+00  0.4015466921E+01 -0.9134047046E-02 -0.1058149826E-01 -0.1058149826E-01  0.4015466921E+01  0.0000000000E+00  0.0000000000E+00 -0.7177150756E-03  0.1012567332E+00 -0.6542942258E-01  0.0000000000E+00  0.0000000000E+00  0.0000000000E+00  0.4015466921E+01 -0.9134047046E-02 -0.1058149826E-01  0.0000000000E+00  0.0000000000E+00  0.0000000000E+00
34  0.1309271362E-04  0.2958459948E-04  0.1547256857E-04  0.1677748330E-04  0.2677736975E-04 -0.1044972480E-01  0.4013150656E+01 -0.7197981772E-03  0.1001049308E+00 -0.6474723983E-01  0.8672429687E+00  0.4013150656E+01 -0.9035112204E-02 -0.1044972480E-01 -0.1044972480E-01  0.4013150656E+01  0.0000000000E+00  0.0000000000E+00 -0.7197981772E-03  0.1001049308E+00 -0.6474723983E-01  0.0000000000E+00  0.0000000000E+00  0.0000000000E+00  0.4013150656E+01 -0.9035112204E-02 -0.1044972480E-01  0.0000000000E+00  0.0000000000E+00  0.0000000000E+00
35  0.9793487436E-05  0.1941096318E-04  0.1234946722E-04  0.1351046412E-04  0.2143423780E-04 -0.1035341029E-01  0.4011649692E+01 -0.7212812623E-03  0.9930060661E-01 -0.6431136322E-01  0.8706429687E+00  0.4011649692E+01 -0.8971508158E-02 -0.1035341029E-01 -0.1035341029E-01  0.4011649692E+01  0.0000000000E+00  0.0000000000E+00 -0.7212812623E-03  0.9930060661E-01 -0.6431136322E-01  0.0000000000E+00  0.0000000000E+00  0.0000000000E+00  0.4011649692E+01 -0.8971508158E-02 -0.1035341029E-01  0.0000000000E+00  0.0000000000E+00  0.0000000000E+00
36  0.7435988787E-05  0.1279979453E-04  0.9761612378E-05  0.1069117905E-04  0.1706033360E-04 -0.1028160055E-01  0.4010735801E+01 -0.7224052630E-03  0.9872409760E-01 -0.6402990103E-01  0.8750429687E+00  0.4010735801E+01 -0.8930588098E-02 -0.1028160055E-01 -0.1028160055E-01  0.4010735801E+01  0.0000000000E+00  0.0000000000E+00 -0.7224052630E-03  0.9872409760E-01 -0.6402990103E-01  0.0000000000E+00  0.0000000000E+00  0.0000000000E+00  0.4010735801E+01 -0.8930588098E-02 -0.1028160055E-01  0.0000000000E+00  0.0000000000E+00  0.0000000000E+00
37  0.5729761350E-05  0.8825865723E-05  0.7751082907E-05  0.8451122865E-05  0.1375453560E-04 -0.1023877597E-01  0.4010271791E+01 -0.7231326946E-03  0.9838938811E-01 -0.6386974829E-01  0.8785429687E+00  0.4010271791E+01 -0.8907080250E-02 -0.1023877597E-01 -0.1023877597E-01  0.4010271791E+01  0.0000000000E+00  0.0000000000E+00 -0.7231326946E-03  0.9838938811E-01 -0.6386974829E-01  0.0000000000E+00  0.0000000000E+00  0.0000000000E+00  0.4010271791E+01 -0.8907080250E-02 -0.1023877597E-01  0.0000000000E+00  0.0000000000E+00  0.0000000000E+00
38  0.4479789134E-05  0.6401354786E-05  0.5957304931E-05  0.6435537673E-05  0.1045514406E-04 -0.1021519173E-01  0.4010125730E+01 -0.7235834107E-03  0.9821089268E-01 -0.6378688097E-01  0.8820429687E+00  0.4010125730E+01 -0.8894946347E-02 -0.1021519173E-01 -0.1021519173E-01  0.4010125730E+01  0.0000000000E+00  0.0000000000E+00 -0.7235834107E-03  0.9821089268E-01 -0.6378688097E-01  0.0000000000E+00  0.0000000000E+00  0.0000000000E+00  0.4010125730E+01 -0.8894946347E-02 -0.1021519173E-01  0.0000000000E+00  0.0000000000E+00  0.0000000000E+00
39  0.3592358639E-05  0.4763517089E-05  0.4513574596E-05  0.4800545912E-05  0.7986173891E-05 -0.1020362376E-01  0.4010168637E+01 -0.7238451598E-03  0.9812680822E-01 -0.6374923174E-01  0.8855429687E+00  0.4010168637E+01 -0.8889458929E-02 -0.1020362376E-01 -0.1020362376E-01  0.4010168637E+01  0.0000000000E+00  0.0000000000E+00 -0.7238451598E-03  0.9812680822E-01 -0.6374923174E-01  0.0000000000E+00  0.0000000000E+00  0.0000000000E+00  0.4010168637E+01 -0.8889458929E-02 -0.1020362376E-01  0.0000000000E+00  0.0000000000E+00  0.0000000000E+00
40  0.2871487315E-05  0.3621316050E-05  0.3396714969E-05  0.3546223735E-05  0.6087635360E-05 -0.1019833371E-01  0.4010343017E+01 -0.7239939598E-03  0.9809245868E-01 -0.6373580999E-01  0.8899429687E+00  0.4010343017E+01 -0.8887576816E-02 -0.1019833371E-01 -0.1019833371E-01  0.4010343017E+01  0.0000000000E+00  0.0000000000E+00 -0.7239939598E-03  0.9809245868E-01 -0.6373580999E-01  0.0000000000E+00  0.0000000000E+00  0.0000000000E+00  0.4010343017E+01 -0.8887576816E-02 -0.1019833371E-01  0.0000000000E+00  0.0000000000E+00  0.0000000000E+00
41  0.2307181465E-05  0.2956177196E-05  0.2563370628E-05  0.2623285170E-05  0.4721149377E-05 -0.1019721450E-01  0.4010544351E+01 -0.7240517929E-03  0.9808822937E-01 -0.6373476198E-01  0.8936429687E+00  0.4010544351E+01 -0.8887335098E-02 -0.1019721450E-01 -0.1019721450E-01  0.4010544351E+01  0.0000000000E+00  0.0000000000E+00 -0.7240517929E-03  0.9808822937E-01 -0.6373476198E-01  0.0000000000E+00  0.0000000000E+00  0.0000000000E+00  0.4010544351E+01 -0.8887335098E-02 -0.1019721450E-01  0.0000000000E+00  0.0000000000E+00  0.0000000000E+00
42  0.1744115444E-05  0.2172736556E-05  0.1871608833E-05  0.1881225803E-05  0.3501046050E-05 -0.1019780316E-01  0.4010761761E+01 -0.7240578343E-03  0.9809613651E-01 -0.6373951636E-01  0.8979429687E+00  0.4010761761E+01 -0.8887934298E-02 -0.1019780316E-01 -0.1019780316E-01  0.4010761761E+01  0.0000000000E+00  0.0000000000E+00 -0.7240578343E-03  0.9809613651E-01 -0.6373951636E-01  0.0000000000E+00  0.0000000000E+00  0.0000000000E+00  0.4010761761E+01 -0.8887934298E-02 -0.1019780316E-01  0.0000000000E+00  0.0000000000E+00  0.0000000000E+00
43  0.1303945203E-05  0.1607819773E-05  0.1348498658E-05  0.1332152577E-05  0.2619814071E-05 -0.1019893080E-01  0.4010954918E+01 -0.7240335402E-03  0.9810671919E-01 -0.6374592435E-01  0.9014429687E+00  0.4010954918E+01 -0.8888710572E-02 -0.1019893080E-01 -0.1019893080E-01  0.4010954918E+01  0.0000000000E+00  0.0000000000E+00 -0.7240335402E-03  0.9810671919E-01 -0.6374592435E-01  0.0000000000E+00  0.0000000000E+00  0.0000000000E+00  0.4010954918E+01 -0.8888710572E-02 -0.1019893080E-01  0.0000000000E+00  0.0000000000E+00  0.0000000000E+00
44  0.9353719974E-06  0.1116340780E-05  0.9460455006E-06  0.9221425559E-06  0.1902440540E-05 -0.1019994521E-01  0.4011119340E+01 -0.7239958557E-03  0.9811564141E-01 -0.6375212424E-01  0.9049429687E+00  0.4011119340E+01 -0.8889439098E-02 -0.1019994521E-01 -0.1019994521E-01  0.4011119340E+01  0.0000000000E+00  0.0000000000E+00 -0.7239958557E-03  0.9811564141E-01 -0.6375212424E-01  0.0000000000E+00  0.0000000000E+00  0.0000000000E+00  0.4011119340E+01 -0.8889439098E-02 -0.1019994521E-01  0.0000000000E+00  0.0000000000E+00  0.0000000000E+00
45  0.6618265000E-06  0.7594978210E-06  0.6516452967E-06  0.6295063010E-06  0.1383503597E-05 -0.1020063624E-01  0.4011253465E+01 -0.7239546111E-03  0.9812163116E-01 -0.6375741405E-01  0.9084429687E+00  0.4011253465E+01 -0.8890026871E-02 -0.1020063624E-01 -0.1020063624E-01  0.4011253465E+01  0.0000000000E+00  0.0000000000E+00 -0.7239546111E-03  0.9812163116E-01 -0.6375741405E-01  0.0000000000E+00  0.0000000000E+00  0.0000000000E+00  0.4011253465E+01 -0.8890026871E-02 -0.1020063624E-01  0.0000000000E+00  0.0000000000E+00  0.0000000000E+00
46  0.4657484626E-06  0.5063547344E-06  0.4410296586E-06  0.4245246606E-06  0.1015218824E-05 -0.1020100165E-01  0.4011359605E+01 -0.7239152044E-03  0.9812489114E-01 -0.6376165754E-01  0.9119429687E+00  0.4011359605E+01 -0.8890462160E-02 -0.1020100165E-01 -0.1020100165E-01  0.4011359605E+01  0.0000000000E+00  0.0000000000E+00 -0.7239152044E-03  0.9812489114E-01 -0.6376165754E-01  0.0000000000E+00  0.0000000000E+00  0.0000000000E+00  0.4011359605E+01 -0.8890462160E-02 -0.1020100165E-01  0.0000000000E+00  0.0000000000E+00  0.0000000000E+00
47  0.3325342927E-06  0.3332732606E-06  0.2934866157E-06  0.2830400736E-06  0.7648561639E-06 -0.1020112097E-01  0.4011441803E+01 -0.7238802026E-03  0.9812613742E-01 -0.6376498471E-01  0.9155429687E+00  0.4011441803E+01 -0.8890771001E-02 -0.1020112097E-01 -0.1020112097E-01  0.4011441803E+01  0.0000000000E+00  0.0000000000E+00 -0.7238802026E-03  0.9812613742E-01 -0.6376498471E-01  0.0000000000E+00  0.0000000000E+00  0.0000000000E+00  0.4011441803E+01 -0.8890771001E-02 -0.1020112097E-01  0.0000000000E+00  0.0000000000E+00  0.0000000000E+00
48  0.2469793682E-06  0.2184886826E-06  0.1922507551E-06  0.1867792865E-06  0.5997532140E-06 -0.1020107479E-01  0.4011513289E+01 -0.7238480895E-03  0.9812619283E-01 -0.6376759034E-01  0.9199429687E+00  0.4011513289E+01 -0.8891008835E-02 -0.1020107479E-01 -0.1020107479E-01  0.4011513289E+01  0.0000000000E+00  0.0000000000E+00 -0.7238480895E-03  0.9812619283E-01 -0.6376759034E-01  0.0000000000E+00  0.0000000000E+00  0.0000000000E+00  0.4011513289E+01 -0.8891008835E-02 -0.1020107479E-01  0.0000000000E+00  0.0000000000E+00  0.0000000000E+00
49  0.1905545230E-06  0.1483770330E-06  0.1244908165E-06  0.1228237285E-06  0.5057283063E-06 -0.1020094555E-01  0.4011563012E+01 -0.7238220508E-03  0.9812539942E-01 -0.6376972196E-01  0.9234429687E+00  0.4011563012E+01 -0.8891159017E-02 -0.1020094555E-01 -0.1020094555E-01  0.4011563012E+01  0.0000000000E+00  0.0000000000E+00 -0.7238220508E-03  0.9812539942E-01 -0.6376972196E-01  0.0000000000E+00  0.0000000000E+00  0.0000000000E+00  0.4011563012E+01 -0.8891159017E-02 -0.1020094555E-01  0.0000000000E+00  0.0000000000E+00  0.0000000000E+00
50  0.1590083594E-06  0.9861571366E-07  0.7764619316E-07  0.7800844161E-07  0.4255862453E-06 -0.1020079021E-01  0.4011600548E+01 -0.7238008965E-03  0.9812437549E-01 -0.6377144235E-01  0.9278429687E+00  0.4011600548E+01 -0.8891272109E-02 -0.1020079021E-01 -0.1020079021E-01  0.4011600548E+01  0.0000000000E+00  0.0000000000E+00 -0.7238008965E-03  0.9812437549E-01 -0.6377144235E-01  0.0000000000E+00  0.0000000000E+00  0.0000000000E+00  0.4011600548E+01 -0.8891272109E-02 -0.1020079021E-01  0.0000000000E+00  0.0000000000E+00  0.0000000000E+00
51  0.1194064418E-01  0.1973282337E-01  0.6898981111E-02  0.7638887686E-02  0.3645919809E-01 -0.1605513343E-01  0.3562281094E+01 -0.1010479027E-02  0.1085033106E+00 -0.6078813120E-01  0.9315429687E+00  0.3562281094E+01 -0.8726394059E-02 -0.1605513343E-01 -0.1605513343E-01  0.3562281094E+01  0.0000000000E+00  0.0000000000E+00 -0.1010479027E-02  0.1085033106E+00 -0.6078813120E-01  0.0000000000E+00  0.0000000000E+00  0.0000000000E+00  0.3562281094E+01 -0.8726394059E-02 -0.1605513343E-01  0.0000000000E+00  0.0000000000E+00  0.0000000000E+00
52  0.6310919950E-02  0.1380168402E-01  0.6328522765E-02  0.7625118721E-02  0.1868501192E-01 -0.1606744182E-01  0.3225277876E+01 -0.1272052598E-02  0.1123681815E+00 -0.7249605025E-01  0.9352429687E+00  0.3225277876E+01 -0.8997599685E-02 -0.1606744182E-01 -0.1606744182E-01  0.3225277876E+01  0.0000000000E+00  0.0000000000E+00 -0.1272052598E-02  0.1123681815E+00 -0.7249605025E-01  0.0000000000E+00  0.0000000000E+00  0.0000000000E+00  0.3225277876E+01 -0.8997599685E-02 -0.1606744182E-01  0.0000000000E+00  0.0000000000E+00  0.0000000000E+00
53  0.4180499494E-02  0.8755888062E-02  0.3974759189E-02  0.4832014679E-02  0.1089746843E-01 -0.5909788547E-02  0.3067388405E+01 -0.1479000690E-02  0.7546215484E-01 -0.1091408943E+00  0.9389429687E+00  0.3067388405E+01 -0.1427363555E-01 -0.5909788547E-02 -0.5909788547E-02  0.3067388405E+01  0.0000000000E+00  0.0000000000E+00 -0.1479000690E-02  0.7546215484E-01 -0.1091408943E+00  0.0000000000E+00  0.0000000000E+00  0.0000000000E+00  0.3067388405E+01 -0.1427363555E-01 -0.5909788547E-02  0.0000000000E+00  0.0000000000E+00  0.0000000000E+00
54  0.3543521670E-02  0.5791266615E-02  0.3287353778E-02  0.3449589608E-02  0.1018157150E-01  0.5911648857E-02  0.2976183010E+01 -0.1615847292E-02  0.1789528950E-01 -0.1414632930E+00  0.9428429687E+00  0.2976183010E+01 -0.2092326400E-01  0.5911648857E-02  0.5911648857E-02  0.2976183010E+01  0.0000000000E+00  0.0000000000E+00 -0.1615847292E-02  0.1789528950E-01 -0.1414632930E+00  0.0000000000E+00  0.0000000000E+00  0.0000000000E+00  0.2976183010E+01 -0.2092326400E-01  0.5911648857E-02  0.0000000000E+00  0.0000000000E+00  0.0000000000E+00